 Gaussian 09, Revision C.01,
 Gaussian 09:  EM64L-G09RevC.01 23-Sep-2011

 -----------------------------------------------------
 # b3lyp/6-31g* geom=connectivity opt=(ts,calcfc) freq
 -----------------------------------------------------

 99/9=1/99;
 -------------------
 Title Card Required
 -------------------
 Charge =  0 Multiplicity = 2

 SCF Done:  E(UB3LYP) =  -1419.82317914     A.U. after   17 cycles
 SCF Done:  E(UB3LYP) =  -1419.82688617     A.U. after   15 cycles
 SCF Done:  E(UB3LYP) =  -1419.82722675     A.U. after   13 cycles
 SCF Done:  E(UB3LYP) =  -1419.82722882     A.U. after   13 cycles
 SCF Done:  E(UB3LYP) =  -1419.82722954     A.U. after    9 cycles
 Optimization completed.
    -- Stationary point found.
 Normal termination of Gaussian 09 at Mon Feb 22 16:28:41 2021.

 --------------------------------------------------------------------
 #N Geom=AllCheck Guess=TCheck SCRF=Check GenChk UB3LYP/6-31G(d) Freq
 --------------------------------------------------------------------

 Structure from the checkpoint file:  TSCDCL.chk
 -------------------
 Title Card Required
 -------------------
 Charge =  0 Multiplicity = 2

                         Standard orientation:
 ---------------------------------------------------------------------
 Center     Atomic      Atomic             Coordinates (Angstroms)
 Number     Number       Type             X           Y           Z
 ---------------------------------------------------------------------
      1          6           0        0.467304    0.000012    0.516852
      2          1           0       -0.920013   -0.000328    0.175468
      3          1           0        0.390881   -0.000076    1.603071
      4         17           0        1.117181    1.480688   -0.113658
      5         17           0        1.117789   -1.480422   -0.113674
      6         17           0       -2.368776   -0.000247   -0.059707
 ---------------------------------------------------------------------

 SCF Done:  E(UB3LYP) =  -1419.82722954     A.U. after    1 cycles

 The electronic state is 2-A.
 Alpha  occ. eigenvalues -- -101.60199-101.60199-101.53080 -10.35427  -9.51837
 Alpha  occ. eigenvalues --   -9.51836  -9.44740  -7.28241  -7.28239  -7.27367
 Alpha  occ. eigenvalues --   -7.27366  -7.27160  -7.27160  -7.21402  -7.20112
 Alpha  occ. eigenvalues --   -7.20109  -0.95501  -0.87739  -0.81532  -0.68939
 Alpha  occ. eigenvalues --   -0.52473  -0.51223  -0.49583  -0.39566  -0.37139
 Alpha  occ. eigenvalues --   -0.36239  -0.35233  -0.31024  -0.30936  -0.27721
 Alpha virt. eigenvalues --   -0.03576   0.01919   0.08329   0.10978   0.29582
 Alpha virt. eigenvalues --    0.34035   0.35519   0.37545   0.38387   0.40560
 Alpha virt. eigenvalues --    0.41040   0.42596   0.42675   0.46827   0.47632

  Beta  occ. eigenvalues -- -101.60117-101.60117-101.52818 -10.34470  -9.51761
  Beta  occ. eigenvalues --   -9.51759  -9.44496  -7.28184  -7.28181  -7.27133
  Beta  occ. eigenvalues --   -7.27133  -7.27105  -7.27104  -7.20582  -7.19962
  Beta  occ. eigenvalues --   -7.19959  -0.94550  -0.87242  -0.79814  -0.67047
  Beta  occ. eigenvalues --   -0.51354  -0.48934  -0.48544  -0.37721  -0.35947
  Beta  occ. eigenvalues --   -0.35754  -0.35018  -0.30456  -0.30361
  Beta virt. eigenvalues --   -0.18118  -0.02587   0.02923   0.09048   0.12739
  Beta virt. eigenvalues --    0.29816   0.34209   0.36206   0.37860   0.38763
  Beta virt. eigenvalues --    0.41010   0.41389   0.42942   0.43524   0.46970

 Mulliken atomic charges:
              1
     1  C   -0.413148
     2  H    0.128114
     3  H    0.274068
     4  Cl   0.107871
     5  Cl   0.107840
     6  Cl  -0.204745
 Sum of Mulliken atomic charges =   0.00000

 Dipole moment (field-independent basis, Debye):
    X=              2.7047    Y=              0.0003    Z=              1.3120  Tot=              3.0061
 Quadrupole moment (field-independent basis, Debye-Ang):
   XX=            -50.2249   YY=            -43.9561   ZZ=            -42.8337
   XY=             -0.0006   XZ=              0.2329   YZ=             -0.0003

  Exact polarizability:  71.228  -0.002  53.382  -0.119   0.000  28.191
 Approx polarizability:  96.534  -0.005  80.906  -0.822  -0.001  39.855

 ******    1 imaginary frequencies (negative Signs) ******

                     1                      2                      3
                     A                      A                      A
 Frequencies --  -748.8974                86.5126               150.7391
 Red. masses --     2.4586                23.5782                 8.9175
 Frc consts  --     0.8124                 0.1040                 0.1194
 IR Inten    --     4.8296                 1.6752                 1.6235

                     4                      5                      6
                     A                      A                      A
 Frequencies --   294.8729               398.2684               673.8533
 Red. masses --     9.5500                 3.7626                 2.1321
 Frc consts  --     0.4892                 0.3516                 0.5704
 IR Inten    --     2.8385                 6.4170                16.1885

                     7                      8                      9
                     A                      A                      A
 Frequencies --   707.2691               767.4297               842.4787
 Red. masses --     2.7478                 5.9172                 7.0355
 Frc consts  --     0.8098                 2.0533                 2.9422
 IR Inten    --     4.9042                63.9569               189.4195

                    10                     11                     12
                     A                      A                      A
 Frequencies --  1032.0249              1267.5862              3182.8165
 Red. masses --     1.2448                 1.1039                 1.0873
 Frc consts  --     0.7811                 1.0450                 6.4895
 IR Inten    --    14.8775                28.2053                 9.3341

 - Thermochemistry -
 -------------------
 Temperature   298.150 Kelvin.  Pressure   1.00000 Atm.
 Atom     1 has atomic number  6 and mass  12.00000

 Molecular mass:   119.92849 amu.
 Principal axes and moments of inertia in atomic units:
                           1         2         3
     Eigenvalues --   571.946461053.048781576.03703
           X            1.00000   0.00000   0.00264
           Y            0.00000   1.00000   0.00000
           Z           -0.00264   0.00000   1.00000
 This molecule is an asymmetric top.
 Rotational symmetry number  1.
 Warning -- assumption of classical behavior for rotation
           may cause significant error
 Rotational temperatures (Kelvin)      0.15144     0.08225     0.05496
 Rotational constants (GHZ):           3.15544     1.71382     1.14511
    1 imaginary frequencies ignored.
 Zero-point vibrational energy      56247.5 (Joules/Mol)
                                   13.44348 (Kcal/Mol)
 Warning -- explicit consideration of   4 degrees of freedom as
           vibrations may cause significant error
 Vibrational temperatures:    124.47   216.88   424.26   573.02   969.52
          (Kelvin)           1017.60  1104.16  1212.14  1484.85  1823.77
                             4579.36

 Zero-point correction=                           0.021424 (Hartree/Particle)
 Thermal correction to Energy=                    0.026831
 Thermal correction to Enthalpy=                  0.027775
 Thermal correction to Gibbs Free Energy=        -0.010214
 Sum of electronic and zero-point Energies=          -1419.805806
 Sum of electronic and thermal Energies=             -1419.800399
 Sum of electronic and thermal Enthalpies=           -1419.799455
 Sum of electronic and thermal Free Energies=        -1419.837444

                     E (Thermal)             CV                S
                      KCal/Mol        Cal/Mol-Kelvin    Cal/Mol-Kelvin
 Total                   16.836             16.472             79.955
 Electronic               0.000              0.000              1.377
 Translational            0.889              2.981             40.260
 Rotational               0.889              2.981             28.342
 Vibrational             15.059             10.510              9.976
 Vibration     1          0.601              1.959              3.737
 Vibration     2          0.618              1.902              2.663
 Vibration     3          0.689              1.683              1.446
 Vibration     4          0.765              1.474              0.969

 Normal termination of Gaussian 09 at Mon Feb 22 16:29:05 2021.
