 Gaussian 09, Revision C.01,
 Gaussian 09:  EM64L-G09RevC.01 23-Sep-2011

 ----------------------------------------------------
 # b3lyp/6-31g* geom=connectivity opt(calcfc,ts) freq
 ----------------------------------------------------

 99/9=1/99;
 -------------------
 Title Card Required
 -------------------
 Charge =  0 Multiplicity = 2

 SCF Done:  E(UB3LYP) =  -1419.82318019     A.U. after   17 cycles
 SCF Done:  E(UB3LYP) =  -1419.82688276     A.U. after   17 cycles
 SCF Done:  E(UB3LYP) =  -1419.82723542     A.U. after   13 cycles
 SCF Done:  E(UB3LYP) =  -1419.82723773     A.U. after   13 cycles
 SCF Done:  E(UB3LYP) =  -1419.82723832     A.U. after    9 cycles
 Optimization completed.
    -- Stationary point found.
 Normal termination of Gaussian 09 at Mon Feb 22 16:34:54 2021.

 --------------------------------------------------------------------
 #N Geom=AllCheck Guess=TCheck SCRF=Check GenChk UB3LYP/6-31G(d) Freq
 --------------------------------------------------------------------

 Structure from the checkpoint file:  TSCHCL.chk
 -------------------
 Title Card Required
 -------------------
 Charge =  0 Multiplicity = 2

                         Standard orientation:
 ---------------------------------------------------------------------
 Center     Atomic      Atomic             Coordinates (Angstroms)
 Number     Number       Type             X           Y           Z
 ---------------------------------------------------------------------
      1          6           0        0.696127    0.024162    0.000000
      2          1           0        1.422579    0.835328    0.000000
      3          1           0       -0.514710    0.782135    0.000000
      4         17           0        0.696127   -0.881560   -1.480576
      5         17           0        0.696127   -0.881560    1.480576
      6         17           0       -1.691349    1.659447    0.000000
 ---------------------------------------------------------------------

 SCF Done:  E(UB3LYP) =  -1419.82723832     A.U. after    1 cycles

 The electronic state is 2-A'.
 Alpha  occ. eigenvalues -- -101.60199-101.60199-101.53080 -10.35427  -9.51837
 Alpha  occ. eigenvalues --   -9.51836  -9.44741  -7.28241  -7.28239  -7.27367
 Alpha  occ. eigenvalues --   -7.27366  -7.27160  -7.27160  -7.21403  -7.20113
 Alpha  occ. eigenvalues --   -7.20109  -0.95500  -0.87738  -0.81534  -0.68939
 Alpha  occ. eigenvalues --   -0.52473  -0.51224  -0.49583  -0.39565  -0.37139
 Alpha  occ. eigenvalues --   -0.36239  -0.35234  -0.31025  -0.30938  -0.27721
 Alpha virt. eigenvalues --   -0.03577   0.01918   0.08330   0.10981   0.29585
 Alpha virt. eigenvalues --    0.34035   0.35521   0.37545   0.38386   0.40557
 Alpha virt. eigenvalues --    0.41039   0.42598   0.42677   0.46829   0.47633

  Beta  occ. eigenvalues -- -101.60117-101.60117-101.52819 -10.34470  -9.51760
  Beta  occ. eigenvalues --   -9.51759  -9.44497  -7.28183  -7.28181  -7.27133
  Beta  occ. eigenvalues --   -7.27133  -7.27105  -7.27104  -7.20583  -7.19963
  Beta  occ. eigenvalues --   -7.19960  -0.94550  -0.87241  -0.79815  -0.67048
  Beta  occ. eigenvalues --   -0.51354  -0.48933  -0.48546  -0.37720  -0.35946
  Beta  occ. eigenvalues --   -0.35754  -0.35018  -0.30457  -0.30362
  Beta virt. eigenvalues --   -0.18119  -0.02589   0.02922   0.09049   0.12741
  Beta virt. eigenvalues --    0.29819   0.34210   0.36208   0.37859   0.38763
  Beta virt. eigenvalues --    0.41006   0.41389   0.42944   0.43526   0.46972

 Mulliken atomic charges:
              1
     1  C   -0.413156
     2  H    0.274084
     3  H    0.128153
     4  Cl   0.107832
     5  Cl   0.107832
     6  Cl  -0.204744
 Sum of Mulliken atomic charges =   0.00000

 Dipole moment (field-independent basis, Debye):
    X=              2.8236    Y=             -1.0290    Z=              0.0000  Tot=              3.0052
 Quadrupole moment (field-independent basis, Debye-Ang):
   XX=            -46.1820   YY=            -46.8772   ZZ=            -43.9565
   XY=              3.6861   XZ=              0.0000   YZ=              0.0000

  Exact polarizability:  48.915 -21.507  50.506   0.000   0.000  53.381
 Approx polarizability:  66.485 -28.309  69.914   0.000   0.000  80.906

 ******    1 imaginary frequencies (negative Signs) ******

                     1                      2                      3
                    A'                     A"                     A'
 Frequencies --  -985.5910                85.8395               148.6307
 Red. masses --     1.2554                23.5400                 8.8868
 Frc consts  --     0.7185                 0.1022                 0.1157
 IR Inten    --     2.3493                 1.6835                 1.6209

                     4                      5                      6
                    A'                     A'                     A'
 Frequencies --   295.4240               381.6423               718.4330
 Red. masses --     9.7377                 4.1520                 4.8607
 Frc consts  --     0.5007                 0.3563                 1.4782
 IR Inten    --     2.7033                 4.9595                20.1984

                     7                      8                      9
                    A"                     A'                     A"
 Frequencies --   786.8909               871.0385               913.5675
 Red. masses --     4.2621                 2.2960                 1.3907
 Frc consts  --     1.5549                 1.0264                 0.6838
 IR Inten    --   119.5389                59.2230                62.1553

                    10                     11                     12
                    A'                     A"                     A'
 Frequencies --   974.0599              1005.3785              2342.1960
 Red. masses --     1.2196                 1.7721                 2.3148
 Frc consts  --     0.6818                 1.0553                 7.4819
 IR Inten    --    17.9625                53.5842                 7.4670

 - Thermochemistry -
 -------------------
 Temperature   298.150 Kelvin.  Pressure   1.00000 Atm.
 Atom     1 has atomic number  6 and mass  12.00000

 Molecular mass:   119.92849 amu.
 Principal axes and moments of inertia in atomic units:
                           1         2         3
     Eigenvalues --   581.176941059.726001573.51516
           X           -0.69609   0.00000   0.71795
           Y            0.71795   0.00000   0.69609
           Z            0.00000   1.00000   0.00000
 This molecule is an asymmetric top.
 Rotational symmetry number  1.
 Warning -- assumption of classical behavior for rotation
           may cause significant error
 Rotational temperatures (Kelvin)      0.14903     0.08173     0.05504
 Rotational constants (GHZ):           3.10532     1.70303     1.14695
    1 imaginary frequencies ignored.
 Zero-point vibrational energy      50979.5 (Joules/Mol)
                                   12.18438 (Kcal/Mol)
 Warning -- explicit consideration of   4 degrees of freedom as
           vibrations may cause significant error
 Vibrational temperatures:    123.50   213.85   425.05   549.10  1033.66
          (Kelvin)           1132.16  1253.23  1314.42  1401.45  1446.51
                             3369.89

 Zero-point correction=                           0.019417 (Hartree/Particle)
 Thermal correction to Energy=                    0.024787
 Thermal correction to Enthalpy=                  0.025731
 Thermal correction to Gibbs Free Energy=        -0.012234
 Sum of electronic and zero-point Energies=          -1419.807821
 Sum of electronic and thermal Energies=             -1419.802451
 Sum of electronic and thermal Enthalpies=           -1419.801507
 Sum of electronic and thermal Free Energies=        -1419.839473

                     E (Thermal)             CV                S
                      KCal/Mol        Cal/Mol-Kelvin    Cal/Mol-Kelvin
 Total                   15.554             16.287             79.905
 Electronic               0.000              0.000              1.377
 Translational            0.889              2.981             40.260
 Rotational               0.889              2.981             28.362
 Vibrational             13.777             10.325              9.906
 Vibration     1          0.601              1.959              3.753
 Vibration     2          0.618              1.904              2.690
 Vibration     3          0.690              1.682              1.443
 Vibration     4          0.751              1.509              1.033

 Optimization completed.
    -- Stationary point found.
 Normal termination of Gaussian 09 at Mon Feb 22 16:35:11 2021.
